version 3
run General-0-20260328-20:13:47-2872
attr configname General
attr datetime 20260328-20:13:47
attr datetimef 20260328-201347
attr experiment General
attr inifile omnetpp.ini
attr iterationvars ""
attr iterationvarsd ""
attr iterationvarsf ""
attr measurement ""
attr network RadioSch
attr processid 2872
attr repetition 0
attr replication #0
attr resultdir results
attr runnumber 0
attr seedset 0
config network RadioSch
config record-eventlog true
config result-dir results
config output-vector-file results/General-0.vec
config output-scalar-file results/General-0.sca
config **.vector-recording true
config **.scalar-recording true
config RadioSch.usersCount 10
config *.scheduler.NrOfHighPriorityUsers 2
config *.scheduler.NrOfMediumPriorityUsers 5
config *.scheduler.NrOfLowPriorityUsers 3
config *.scheduler.NrOfChannels 30
config *.scheduler.HighPriorityWeight 4
config *.scheduler.MediumPriorityWeight 2
config *.scheduler.LowPriorityWeight 1
config *.delayLimit 1
config *.flc.config "xmldoc(\"conf2.xml\")"
config **.generator.sendIaTime 0.37ms
config **.generator.nrPackets 1
config **.generator.MAX_SIM 500s
config *.scheduler.schedulingPeriod 1ms
config sim-time-limit 500s

vector 0 RadioSch.sink "high priority mean delay" ETV
vector 1 RadioSch.sink "medium priority mean delay" ETV
vector 2 RadioSch.sink "low priority mean delay" ETV
vector 3 RadioSch.flc "delay vector" ETV
vector 4 RadioSch.flc "result nescalat" ETV
vector 5 RadioSch.flc "res scalat" ETV
vector 6 RadioSch.flc "weight vector" ETV
0	125	1	1
0	126	1	0.8437808581975
0	127	1	0.72571650075633
0	128	1	0.5678876437995
0	130	1	0.6543101150396
0	131	1	0.70950880122083
0	132	1	0.73963814680643
0	133	1	0.7132683054225
0	225	2	0.70957957788667
0	226	2	0.6808840158047
0	227	2	0.23676896171
0	229	2	0.806411461187
0	230	2	0.62787220768433
0	231	2	0.505401813465
0	322	3	0.5585060228364
0	323	3	0.57473248111083
0	325	3	0.63724422377386
0	326	3	0.65822983128025
0	432	4	0.68697219941711
0	433	4	0.6791310990227
0	434	4	0.134804184501
0	435	4	0.118689096598
0	437	4	0.34520280744433
0	438	4	0.2886977980955
0	557	5	0.392022049778
0	558	5	0.328667780588
0	560	5	0.36848033730014
0	561	5	0.385319268795
0	562	5	0.36490990635411
0	563	5	0.343366604678
0	564	5	0.12839927258
0	665	6	0.5139131151515
0	667	6	0.63892362079567
0	668	6	0.6769077617375
0	669	6	0.6393128725692
0	670	6	0.603671397769
0	757	7	0.61972871470457
0	759	7	0.60966856307825
0	760	7	0.57733471183367
0	850	8	0.5627946343023
0	851	8	0.284009685703
0	853	8	0.158858488198
0	952	9	0.289362002466
0	954	9	0.465225605937
0	955	9	0.5601433639394
0	956	9	0.591464485308
0	957	9	0.56245698366586
0	1054	10	0.56775329518712
0	1055	10	0.566920475362
0	1056	10	0.5544967538708
0	1057	10	0.291457728383
0	1058	10	0.264145829985
0	1059	10	0.18521921914333
0	1061	10	0.24848363965575
0	1062	10	0.280106353199
0	1146	11	0.39695405321983
0	1147	11	0.42250377437871
0	1148	11	0.44029592045412
0	1149	11	0.45408458165778
0	1150	11	0.4367905645766
0	1152	11	0.870348115666
0	1153	11	0.4631969939085
0	1243	12	0.67981733171667
0	1245	12	0.73328045544875
0	1246	12	0.735901815319
0	1247	12	0.62602587619233
0	1374	13	0.58275798690486
0	1375	13	0.51937513079638
0	1479	14	0.47043276010722
0	1480	14	0.4256335460747
0	1482	14	0.655137148277
0	1483	14	0.3757122568195
0	1575	15	0.53568850116267
0	1576	15	0.591816689625
0	1577	15	0.5283104124068
0	1579	15	0.492938743183
0	1580	15	0.44603147292486
0	1664	16	0.48938674224987
0	1665	16	0.47239106142344
0	1666	16	0.453883912658
0	1667	16	0.193824134309
0	1669	16	0.452695131186
0	1670	16	0.533438957766
0	1671	16	0.494859191549
0	1672	16	0.4529052742672
0	1777	17	0.45140038858783
0	1778	17	0.44882533438143
0	1779	17	0.43180818184112
0	1781	17	0.49072562341467
0	1782	17	0.5113732581227
0	1886	18	0.475559116657
0	1887	18	0.414564890469
0	1888	18	0.36090608946533
0	1889	18	0.286338851837
0	1891	18	0.4235444306534
0	1892	18	0.5065671127185
0	1893	18	0.51961207324171
0	1894	18	0.510843283717
0	1895	18	0.49182352400411
0	1896	18	0.4545961880302
0	1990	19	0.970128153292
0	1991	19	0.670190131795
0	1993	19	0.62927290857733
0	1994	19	0.577560713604
0	1995	19	0.508828144257
0	2084	20	0.56544607400167
0	2085	20	0.54333927983486
0	2086	20	0.48733567239925
0	2088	20	0.52677380188378
0	2089	20	0.5468856980759
0	2090	20	0.616795054445
0	2091	20	0.3541656626215
0	2162	21	0.35731707605767
0	2163	21	0.27065569861375
0	2165	21	0.3585234436772
0	2371	23	0.43411858007133
0	2372	23	0.47195997183157
0	2373	23	0.47694495596875
0	2374	23	0.45174935102456
0	2376	23	0.4868159857271
0	2377	23	0.354498657005
0	2378	23	0.340091483053
0	2466	24	0.54406122437133
0	2467	24	0.60019403871925
0	2468	24	0.5154826936046
0	2470	24	0.55353814584133
0	2471	24	0.53839689583157
0	2472	24	0.48595521537975
0	2584	25	0.52594290880311
0	2585	25	0.5553037306975
0	2586	25	0.682976598908
0	2587	25	0.5773081351135
0	2588	25	0.494949040758
0	2589	25	0.41085294579675
0	2591	25	0.4844128773796
0	2698	26	0.502336139125
0	2699	26	0.47397730591429
0	2700	26	0.42790164366175
0	2702	26	0.44868250774089
0	2703	26	0.442364312441
0	2808	27	0.876179423326
0	2809	27	0.851793995628
0	2810	27	0.75946202395767
0	2811	27	0.6904575370185
0	2813	27	0.6061323627236
0	2905	28	0.6354892798185
0	2906	28	0.64689256838743
0	2907	28	0.610473458521
0	2908	28	0.54776814509311
0	2910	28	0.5540792234805
0	2911	28	0.190794493839
0	3014	29	0.420958821676
0	3015	29	0.47355733741033
0	3016	29	0.43390974440225
0	3018	29	0.475287128828
0	3019	29	0.4964721825715
0	3020	29	0.50595983027943
0	3021	29	0.482519057931
0	3022	29	0.44952398749144
0	3123	30	0.4569475099102
0	3124	30	0.067168221829
0	3126	30	0.282266247817
0	3127	30	0.33292466204533
0	3128	30	0.28264682104525
0	3217	31	0.3467042118148
0	3219	31	0.39930258942683
0	3220	31	0.389475630223
0	3221	31	0.36575939889312
0	3330	32	0.43068105279722
0	3331	32	0.4811383767588
0	3332	32	0.925798718135
0	3333	32	0.7853863190845
0	3335	32	0.82609069464533
0	3336	32	0.81713548889825
0	3337	32	0.7158942203434
0	3338	32	0.6272136335495
0	3339	32	0.54108397774686
0	3430	33	0.57066315488325
0	3431	33	0.56611260012278
0	3432	33	0.512639327171
0	3434	33	0.908881097368
0	3435	33	0.767836281511
0	3557	34	0.737790495136
0	3558	34	0.66980402594325
0	3559	34	0.6001706993382
0	3560	34	0.524727617932
0	3562	34	0.581667209125
0	3563	34	0.574133642488
0	3564	34	0.55780710845256
0	3565	34	0.5438862205025
0	3566	34	0.113657354333
0	3623	35	0.236684319713
0	3734	36	0.235962505657
0	3736	36	0.380730114972
0	3737	36	0.3503461215482
0	3738	36	0.29273562558333
0	3848	37	0.30358701137543
0	3938	38	0.38167945593462
0	3939	38	0.42846310739333
0	3940	38	0.4584627319238
0	3941	38	0.6522190408
0	3942	38	0.613600831337
0	3943	38	0.53850739851
0	3945	38	0.53963454460675
0	3946	38	0.4849750138788
0	4046	39	0.50124923914683
0	4047	39	0.46586246850214
0	4049	39	0.48372085649463
0	4165	40	0.52905746603989
0	4166	40	0.5514135221296
0	4167	40	0.029365732018
0	4169	40	0.501479423846
0	4170	40	0.61727756912867
0	4304	41	0.6398362303515
0	4305	41	0.6074803055762
0	4306	41	0.54907732592667
0	4308	41	0.57879053542486
0	4309	41	0.52814019073313
0	4310	41	0.47818394019511
0	4419	42	0.5020332344624
0	4420	42	0.630201676907
0	4421	42	0.43491757519
0	4423	42	0.45546661817333
0	4424	42	0.4212278379785
0	4425	42	0.3700996890488
0	4527	43	0.45629241756167
0	4528	43	0.48234779279557
0	4529	43	0.472378223347
0	4530	43	0.433411850649
0	4532	43	0.4844491341849
0	4533	43	0.671580166065
0	4534	43	0.3705253443215
0	4628	44	0.54378487374567
0	4629	44	0.562178430956
0	4630	44	0.4957241804026
0	4631	44	0.43751897547817
0	4632	44	0.39348540725714
0	4634	44	0.43454320725713
0	4635	44	0.44048655065567
0	4735	45	0.4949173053151
0	4736	45	0.521400527283
0	4737	45	0.4579807560835
0	4738	45	0.43287476368967
0	4739	45	0.401474904536
0	4740	45	0.3387067685104
0	4742	45	0.41073977977267
0	4830	46	0.41765686916643
0	4831	46	0.42166376701112
0	4832	46	0.38934362155711
0	4834	46	0.4347230185455
0	4835	46	0.811700770637
0	4836	46	0.708200750205
0	4837	46	0.50647938735267
0	4923	47	0.3823791123885
0	4924	47	0.3060495562248
0	4926	47	0.3485790320715
0	4927	47	0.37375917621443
0	5048	48	0.38673516079187
0	5049	48	0.36137225748767
0	5050	48	0.3291495802343
0	5052	48	0.887296445383
0	5053	48	0.487650156777
0	5166	49	0.65059557967733
0	5167	49	0.63831372906125
0	5168	49	0.6221178664414
0	5169	49	0.56501168496733
0	5170	49	0.51489605467214
0	5172	49	0.5592219987145
0	5173	49	0.52809583411644
0	5258	50	0.5509572669606
0	5259	50	0.082596467595
0	5260	50	0.0593341473615
0	5262	50	0.33013319406667
0	5263	50	0.44590688362575
0	5264	50	0.44794369805
0	5367	51	0.53424604529233
0	5368	51	0.51149857685443
0	5454	52	0.47215459254337
0	5456	52	0.46197694047844
0	5457	52	0.4380140993033
0	5458	52	0.212327220746
0	5572	53	0.1356800190165
0	5574	53	0.17590712706867
0	5575	53	0.16230219158825
0	5576	53	0.149773367717
0	5577	53	0.1405462129485
0	5677	54	0.23312852347243
0	5678	54	0.28991614189588
0	5679	54	0.320089450425
0	5680	54	0.2996673588903
0	5758	55	0.905208629361
0	5759	55	0.796514636096
0	5760	55	0.74274833027467
0	5761	55	0.57508102952225
0	5762	55	0.4711083025198
0	5974	57	0.47811191746
0	5975	57	0.46667548118143
0	5976	57	0.41560082572462
0	6088	58	0.47006541478822
0	6089	58	0.4865309407183
0	6090	58	0.456221706658
0	6092	58	0.5711900504385
0	6093	58	0.59931641117133
0	6218	59	0.6496816785225
0	6219	59	0.636327540136
0	6221	59	0.57670524523233
0	6222	59	0.512271520328
0	6315	60	0.51392966692887
0	6316	60	0.47397629854811
0	6317	60	0.4289475493145
0	6318	60	0.005721155937
0	6422	61	0.481956618088
0	6423	61	0.34720790871833
0	6425	61	0.36471399602425
0	6426	61	0.3165886409344
0	6427	61	0.26911580777033
0	6534	62	0.28187898943171
0	6536	62	0.36424252484925
0	6537	62	0.42151333561144
0	6538	62	0.4576913615418
0	6539	62	0.691339590829
0	6540	62	0.6707607188275
0	6541	62	0.64886683038767
0	6542	62	0.534356206114
0	6543	62	0.4378358484764
0	6672	63	0.4707662844495
0	6673	63	0.46031904066486
0	6674	63	0.4460887183195
0	6676	63	0.49055215758356
0	6677	63	0.500664327278
0	6678	63	0.334691379873
0	6679	63	0.3284021710195
0	6764	64	0.625059992126
0	6765	64	0.73358243215025
0	6766	64	0.7975313065854
0	6767	64	0.832689324413
0	6768	64	0.81418927291571
0	6769	64	0.72362567526462
0	6771	64	0.74776015311467
0	6772	64	0.7077731867095
0	6773	64	0.287305831819
0	6774	64	0.191086429097
0	6845	65	0.293406790155
0	6846	65	0.3310882358825
0	6848	65	0.470704351969
0	6849	65	0.39559520271883
0	6940	66	0.35267263956271
0	6942	66	0.37143155268113
0	6943	66	0.38493047290467
0	6944	66	0.3651484316651
0	7059	67	0.906990301791
0	7060	67	0.632831208503
0	7061	67	0.50482579089467
0	7063	67	0.46390750423475
0	7064	67	0.3836977345768
0	7065	67	0.3275187414415
0	7169	68	0.410777471665
0	7170	68	0.44117427256687
0	7171	68	0.42386717506656
0	7172	68	0.4007874162772
0	7174	68	0.916206359904
0	7175	68	0.846336323854
0	7176	68	0.822568521465
0	7177	68	0.68951043043425
0	7285	69	0.7064862671628
0	7286	69	0.671701757739
0	7287	69	0.61618143028514
0	7288	69	0.57357893391212
0	7289	69	0.52848665039644
0	7290	69	0.4921095617283
0	7292	69	0.925393050126
0	7293	69	0.9181385702325
0	7294	69	0.90386236405267
0	7295	69	0.81119978289275
0	7381	70	0.8740342169458
0	7382	70	0.91433246102867
0	7383	70	0.92270902867443
0	7384	70	0.86858205556388
0	7385	70	0.80999047126967
0	7386	70	0.7583090780965
0	7388	70	0.747394435082
0	7389	70	0.7029005383295
0	7390	70	0.56662027896
0	7391	70	0.468485097776
0	7486	71	0.5317161544104
0	7487	71	0.53901950443517
0	7488	71	0.51848727898314
0	7489	71	0.46907299509775
0	7491	71	0.51112150742256
0	7492	71	0.4928645564691
0	7594	72	0.593687471551
0	7595	72	0.429791564608
0	7596	72	0.29712759524667
0	7598	72	0.46460120321775
0	7599	72	0.3983966407632
0	7714	73	0.469717141912
0	7715	73	0.50155282820757
0	7716	73	0.524792404956
0	7717	73	0.50062529712933
0	7718	73	0.4652221688719
0	7719	73	0.052545594885
0	7721	73	0.34429501338
0	7722	73	0.42688357224933
0	7723	73	0.46285851543475
0	7724	73	0.4606169130212
0	7828	74	0.45806181804233
0	7829	74	0.42780283638086
0	7830	74	0.39239318428888
0	7832	74	0.48672192312578
0	7833	74	0.4817016453451
0	7834	74	0.374759051505
0	7835	74	0.2959298573275
0	7956	75	0.468940623051
0	7958	75	0.567000068235
0	7959	75	0.5566634128432
0	7960	75	0.544787283782
0	7961	75	0.52841527053971
0	7962	75	0.4743563353
0	7963	75	0.42912629112511
0	8081	76	0.4569069107866
0	8082	76	0.687559209462
0	8083	76	0.593885403936
0	8085	76	0.707931992196
0	8086	76	0.67818959957025
0	8189	77	0.6152553831932
0	8190	77	0.55285264988083
0	8191	77	0.47750342155171
0	8193	77	0.46244473700525
0	8194	77	0.43657031179133
0	8195	77	0.3973471305749
0	8303	78	0.77350303664
0	8304	78	0.681568790999
0	8306	78	0.59656260783567
0	8307	78	0.5438743067175
0	8407	79	0.6198393203196
0	8408	79	0.59045469746583
0	8410	79	0.64081324752029
0	8411	79	0.59971510918912
0	8509	80	0.62878641279889
0	8510	80	0.6034288131634
0	8512	80	0.871156655906
0	8513	80	0.793679264311
0	8605	81	0.73223559541733
0	8720	82	0.5666579468135
0	8721	82	0.4662585087232
0	8723	82	0.44689321938067
0	8799	83	0.44762195721943
0	8801	83	0.44418882263775
0	8802	83	0.43074166389044
0	8803	83	0.4003446182051
0	8898	84	0.766098732029
0	8899	84	0.421465911494
0	8901	84	0.38619771205633
0	8902	84	0.3673580815845
0	8903	84	0.3125949784142
0	9020	85	0.40647569220383
0	9021	85	0.46863172746171
0	9022	85	0.50883607530625
0	9023	85	0.53946781775811
0	9025	85	0.5839361835282
0	9026	85	0.837181496574
0	9027	85	0.8073928657405
0	9028	85	0.660320336155
0	9029	85	0.49553080937325
0	9127	86	0.7171452119064
0	9128	86	0.82792953476917
0	9129	86	0.88203369279114
0	9130	86	0.92201744109375
0	9131	86	0.87182852016278
0	9133	86	0.884204097853
0	9134	86	0.461588104058
0	9135	86	0.4434260935885
0	9136	86	0.337169110242
0	9232	87	0.6034693166815
0	9233	87	0.7177018564514
0	9234	87	0.784525694403
0	9235	87	0.81506585710586
0	9236	87	0.836005958564
0	9238	87	0.81649000876167
0	9239	87	0.7610789771954
0	9240	87	0.108832904743
0	9332	88	0.761225867255
0	9333	88	0.94069288086967
0	9334	88	0.852259255648
0	9335	88	0.7106616268706
0	9337	88	0.7079187023435
0	9338	88	0.68490350528343
0	9339	88	0.64546925101675
0	9425	89	0.64558010441756
0	9426	89	0.5951864178198
0	9428	89	0.28806677695
0	9429	89	0.275656747314
0	9430	89	0.23415669541533
0	9531	90	0.42112865449675
0	9532	90	0.4915286409586
0	9533	90	0.523959946805
0	9534	90	0.491813238404
0	9535	90	0.44335183404387
0	9536	90	0.40536701416767
0	9538	90	0.4463940278688
0	9539	90	0.806332548893
0	9540	90	0.6278435010395
0	9541	90	0.508296020087
0	9612	91	0.6465457052335
0	9613	91	0.7271388551228
0	9614	91	0.77502162984633
0	9615	91	0.73856770655229
0	9617	91	0.71325531446113
0	9744	92	0.73358882768611
0	9745	92	0.7012021621415
0	9746	92	0.346356009754
0	9747	92	0.1871404663085
0	9749	92	0.251086434995
0	9830	93	0.27137400743975
0	9832	93	0.2444829765238
0	9833	93	0.21266246820167
0	9944	94	0.29852262497371
0	9945	94	0.34689733296763
0	9947	94	0.40299589887167
0	9948	94	0.4199158018956
0	9949	94	0.473394185714
0	10045	95	0.7009637974945
0	10046	95	0.742739048238
0	10047	95	0.577853545909
0	10049	95	0.5635152826682
0	10050	95	0.517155641018
0	10145	96	0.56552740922914
0	10146	96	0.54959967874875
0	10147	96	0.53680304610533
0	10148	96	0.5175682695189
0	10150	96	0.503691371067
0	10151	96	0.3260660730555
0	10259	97	0.52554199978267
0	10260	97	0.6199433969135
0	10261	97	0.6223202617652
0	10262	97	0.57321158332933
0	10264	97	0.60943648427971
0	10265	97	0.56290326509937
0	10350	98	0.55790345480978
0	10352	98	0.5733138184019
0	10353	98	0.228164295057
0	10354	98	0.1664991375215
0	10466	99	0.389881968235
0	10467	99	0.37755176857725
0	10468	99	0.3571710581104
0	10469	99	0.32305288302883
0	10471	99	0.35820051452014
0	10571	100	0.35393796383637
0	10573	100	0.39528326840233
0	10574	100	0.4027720634069
0	10686	101	0.792810038252
0	10687	101	0.513804888697
0	10689	101	0.67438671999467
0	10690	101	0.67843178508875
0	10691	101	0.6720712274472
0	10692	101	0.64708122824417
0	10693	101	0.57673688212657
0	10785	102	0.59049598115587
0	10786	102	0.52824754385044
0	10788	102	0.5352205547086
0	10789	102	0.014722926252
0	10910	103	0.2435613997125
0	10912	103	0.45602071591633
0	10913	103	0.53820431819175
0	10914	103	0.501945163499
0	10915	103	0.456844906332
0	10916	103	0.42104284544829
0	11051	104	0.4704506709875
0	11052	104	0.50477585697444
0	11053	104	0.5123300939269
0	11055	104	0.963211244298
0	11161	105	0.815964494027
0	11162	105	0.703378970327
0	11163	105	0.635381176478
0	11164	105	0.5744947504354
0	11165	105	0.48679740593067
0	11167	105	0.444535598228
0	11297	106	0.44353121769863
0	11298	106	0.42406154549589
0	11299	106	0.4016209497113
0	11301	106	0.982206059496
0	11302	106	0.9703861087065
0	11303	106	0.940652001627
0	11304	106	0.907497133196
0	11305	106	0.8426356387836
0	11306	106	0.77133960636917
0	11406	107	0.802116544487
0	11407	107	0.82456121546062
0	11408	107	0.81087009843889
0	11409	107	0.7860952923493
0	11411	107	0.962773371217
0	11412	107	0.7662697262755
0	11507	108	0.71177380519333
0	11509	108	0.75200884868775
0	11510	108	0.6973702955888
0	11609	109	0.70271742443633
0	11610	109	0.65833648466314
0	11611	109	0.60706821970725
0	11612	109	0.55704390430756
0	11613	109	0.5163941469508
0	11615	109	0.854547424945
0	11616	109	0.595716405173
0	11617	109	0.421348263415
0	11731	110	0.55609182231025
0	11732	110	0.506197435315
0	11733	110	0.44466868510417
0	11735	110	0.50199999218871
0	11736	110	0.502439298223
0	11819	111	0.470727519358
0	11821	111	0.4396958763731
0	11947	112	0.806640039515
0	11948	112	0.70847921177
0	11949	112	0.65631705696767
0	11951	112	0.73121823963275
0	11952	112	0.71623601771
0	11953	112	0.68084099706667
0	11954	112	0.59462845638471
0	11955	112	0.52100694589762
0	12032	113	0.53153620438267
0	12034	113	0.5669466459269
0	12035	113	0.649410373451
0	12123	114	0.662364917184
0	12124	114	0.65697637993567
0	12125	114	0.61945899089025
0	12126	114	0.5962842711778
0	12127	114	0.54726983676767
0	12129	114	0.542235378189
0	12130	114	0.494513046626
0	12212	115	0.48257683849544
0	12213	115	0.4505465094665
0	12214	115	0.138183705064
0	12216	115	0.3949559291345
0	12217	115	0.384967303072
0	12218	115	0.34238894549
0	12312	116	0.318552625788
0	12314	116	0.32156681960833
0	12315	116	0.309419272837
0	12409	117	0.35619251346238
0	12410	117	0.38104451402711
0	12411	117	0.3709004832977
0	12413	117	0.622845197424
0	12414	117	0.608817916117
0	12415	117	0.572229113754
0	12416	117	0.45867269491675
0	12521	118	0.5215676813812
0	12523	118	0.5483285866185
0	12524	118	0.56394461233486
0	12525	118	0.57328915911487
0	12526	118	0.53555555696789
0	12621	119	0.5618851395901
0	12622	119	0.684411511641
0	12623	119	0.4170828840445
0	12625	119	0.57574846329033
0	12626	119	0.635467353784
0	12627	119	0.5871790058098
0	12713	120	0.6253426073665
0	12715	120	0.54083592454443
0	12811	121	0.57306511734987
0	12812	121	0.56701615616189
0	12814	121	0.605183219754
0	12917	122	0.97518491964
0	12918	122	0.7869884099875
0	12920	122	0.780026196109
0	12921	122	0.72944480485525
0	13025	123	0.7466775957138
0	13026	123	0.69435163920733
0	13027	123	0.63818575321357
0	13028	123	0.5865820445425
0	13029	123	0.52970197065022
0	13123	124	0.5760502350447
0	13124	124	0.992915638948
0	13125	124	0.5803394593055
0	13127	124	0.46724234758933
0	13128	124	0.4083818145965
0	13129	124	0.329480485076
0	13233	125	0.3007739781425
0	13235	125	0.37141646867929
0	13236	125	0.3810845896395
0	13367	126	0.44449662723044
0	13368	126	0.4725805548635
0	13369	126	0.639369787901
0	13370	126	0.625090938367
0	13371	126	0.61896876486567
0	13372	126	0.577383412151
0	13373	126	0.545606813839
0	13374	126	0.52281109021467
0	13375	126	0.465465000193
0	13473	127	0.491134586477
0	13474	127	0.47083291768311
0	13476	127	0.5022745819239
0	13477	127	0.570217710519
0	13573	128	0.6577816231245
0	13574	128	0.59561331941267
0	13576	128	0.62394681204175
0	13577	128	0.61681046041
0	13578	128	0.603297467534
0	13579	128	0.58094782247229
0	13694	129	0.63072944080363
0	13695	129	0.66310766643967
0	13696	129	0.6411015216102
0	13697	129	0.371028919694
0	13698	129	0.2315483821345
0	13700	129	0.32702573550967
0	13701	129	0.30094321531725
0	13702	129	0.2839371280982
0	13793	130	0.38357777632833
0	13794	130	0.44081825074214
0	13795	130	0.480087767519
0	13796	130	0.48911526783333
0	13797	130	0.485617765149
0	13799	130	0.783662825412
0	13800	130	0.4667164322275
0	13895	131	0.45714574312833
0	13896	131	0.4047945589805
0	13897	131	0.346355841085
0	13898	131	0.30726222498133
0	13900	131	0.31405327160686
0	13998	132	0.38777087228775
0	13999	132	0.39422651701978
0	14000	132	0.3669109205339
0	14001	132	0.102840585868
0	14003	132	0.4967593180125
0	14004	132	0.446955846104
0	14005	132	0.414742369864
0	14094	133	0.4434720696402
0	14095	133	0.4032584713425
0	14097	133	0.41525579485214
0	14098	133	0.385631570551
0	14314	135	0.44747659925833
0	14315	135	0.4618816610649
0	14316	135	0.384435434075
0	14318	135	0.6664375272795
0	14319	135	0.57632910982367
0	14320	135	0.5156583692145
0	14404	136	0.5858999776634
0	14405	136	0.53047483595867
0	14407	136	0.578633034518
0	14408	136	0.58017959365325
0	14409	136	0.54212757308211
0	14504	137	0.5412930337752
0	14505	137	0.531669210349
0	14507	137	0.601145614023
0	14508	137	0.439912005226
0	14631	138	0.51234420029325
0	14633	138	0.4259661678278
0	14634	138	0.35661530213183
0	14635	138	0.30655677448129
0	14737	139	0.37306088044275
0	14738	139	0.42109044010489
0	14740	139	0.4434629676829
0	14741	139	0.624597541525
0	14851	140	0.679844735081
0	14852	140	0.55470706998233
0	14853	140	0.45987946347625
0	14855	140	0.474497332858
0	14856	140	0.483556915919
0	14857	140	0.48239868154429
0	14858	140	0.43816156601425
0	14957	141	0.50003305609522
0	14958	141	0.5382568401606
0	14959	141	0.652607231598
0	14960	141	0.446199631379
0	14962	141	0.53746830067333
0	14963	141	0.4512428582335
0	15063	142	0.5313483388382
0	15064	142	0.57766470282283
0	15065	142	0.60100881011729
0	15066	142	0.616143315175
0	15067	142	0.603965327163
0	15068	142	0.5808750291459
0	15069	142	0.301646596205
0	15071	142	0.5933773488805
0	15191	143	0.64169380924767
0	15192	143	0.63650538254
0	15193	143	0.58572855113
0	15194	143	0.54608657668033
0	15195	143	0.49184706304757
0	15196	143	0.448635907686
0	15198	143	0.48612764637233
0	15199	143	0.512384924894
0	15200	143	0.511853952437
0	15201	143	0.2889911257025
0	15302	144	0.40546225749067
0	15303	144	0.43888782110625
0	15304	144	0.4473680276594
0	15306	144	0.42403749217033
0	15307	144	0.40252230247614
0	15382	145	0.47705858736075
0	15383	145	0.52915377238789
0	15384	145	0.5332332699976
0	15385	145	0.562870273915
0	15386	145	0.5544991583355
0	15388	145	0.629019004999
0	15389	145	0.54515439369425
0	15473	146	0.547838799035
0	15475	146	0.57615717670317
0	15476	146	0.55279163511414
0	15477	146	0.509176551048
0	15478	146	0.47293109173033
0	15479	146	0.4324519043151
0	15551	147	0.715041616494
0	15552	147	0.6081401282755
0	15554	147	0.51349307281633
0	15555	147	0.39353315111275
0	15652	148	0.4977262392178
0	15653	148	0.482365173729
0	15773	149	0.55485687796657
0	15774	149	0.49073469635775
0	15776	149	0.51196479184211
0	15882	150	0.5529426615395
0	15883	150	0.662127000785
0	15884	150	0.5560882488175
0	15885	150	0.478239884106
0	15887	150	0.56009802944175
0	15888	150	0.593159461867
0	15889	150	0.6073870448005
0	15890	150	0.58392297236257
0	16006	151	0.568579746231
0	16007	151	0.51406829168644
0	16009	151	0.5261303128008
0	16010	151	0.41444385231
0	16011	151	0.229463602942
0	16120	152	0.39703793640133
0	16121	152	0.45190355495925
0	16122	152	0.3903272638502
0	16124	152	0.46001397571133
0	16125	152	0.49549059170971
0	16126	152	0.47849872657562
0	16127	152	0.43064710043889
0	16237	153	0.4715623236948
0	16238	153	0.116656114365
0	16239	153	0.098360360135
0	16241	153	0.276601466338
0	16242	153	0.2433126169185
0	16243	153	0.2126613646174
0	16340	154	0.2403943202685
0	16426	155	0.344199210226
0	16427	155	0.3290252314315
0	16429	155	0.40153563403644
0	16430	155	0.4193953041517
0	16539	156	0.429225420252
0	16541	156	0.537865430197
0	16542	156	0.44584686933467
0	16543	156	0.34386774375375
0	16609	157	0.3743894414474
0	16611	157	0.44078974475267
0	16612	157	0.45742610898271
0	16613	157	0.44535286830362
0	16614	157	0.40836573897589
0	16720	158	0.4484621651012
0	16721	158	0.462304906295
0	16722	158	0.289925909133
0	16723	158	0.219957960439
0	16725	158	0.32439834683225
0	16846	159	0.3700233741754
0	16847	159	0.34859094639567
0	16848	159	0.31599668683757
0	16850	159	0.34720572864463
0	16851	159	0.363025776747
0	16852	159	0.3721358007226
0	16953	160	0.609005461459
0	16954	160	0.481688857397
0	16955	160	0.36003633301967
0	16956	160	0.27055435561125
0	16958	160	0.3469518760702
0	16959	160	0.37564121705267
0	16960	160	0.36469673733929
0	17036	161	0.44023798521175
0	17037	161	0.44987609412556
0	17038	161	0.4132058800354
0	17040	161	0.863529843513
0	17041	161	0.7706404605625
0	17142	162	0.81138636959333
0	17143	162	0.81492947913025
0	17144	162	0.6889242869424
0	17146	162	0.71075454642717
0	17259	163	0.70753908604014
0	17260	163	0.664286222781
0	17261	163	0.61852983536478
0	17262	163	0.5749467233633
0	17264	163	0.601093912292
0	17265	163	0.553489996447
0	17266	163	0.43921666107067
0	17352	164	0.4151804407325
0	17353	164	0.3859534896628
0	17354	164	0.328392680359
0	17455	165	0.38266805897214
0	17456	165	0.34756733631025
0	17458	165	0.41712848159922
0	17459	165	0.4630946607268
0	17460	165	0.803646641778
0	17461	165	0.613174210286
0	17462	165	0.53395494723533
0	17540	166	0.59878744303975
0	17541	166	0.627512182959
0	17646	167	0.52483103331883
0	17648	167	0.52903862229571
0	17649	167	0.48593917026388
0	17650	167	0.44083254685922
0	17726	168	0.4426832563036
0	17727	168	0.10994079686
0	17859	169	0.535346471308
0	17860	169	0.384794459529
0	17862	169	0.48233208760025
0	17863	169	0.4716509110738
0	17950	170	0.4290702397145
0	17952	170	0.50486893471271
0	18047	171	0.56353329964712
0	18048	171	0.50305641551533
0	18160	172	0.5495884272019
0	18161	172	0.854411694158
0	18162	172	0.7188330153065
0	18163	172	0.60702138233333
0	18164	172	0.52282451658925
0	18165	172	0.4495588575736
0	18167	172	0.51842848912633
0	18168	172	0.56729090173929
0	18169	172	0.58699736691675
0	18170	172	0.58252046372911
0	18284	173	0.6023460514289
0	18285	173	0.597443993563
0	18287	173	0.9652756620545
0	18288	173	0.888979938602
0	18289	173	0.730630468377
0	18420	174	0.6906835116576
0	18421	174	0.62420873227217
0	18422	174	0.55261702784714
0	18423	174	0.49816414721687
0	18425	174	0.52595196104178
0	18528	175	0.5529050212035
0	18529	175	0.43298991696
0	18530	175	0.3888639450155
0	18531	175	0.26166940303633
0	18533	175	0.35464637113075
0	18619	176	0.4201673825116
0	18620	176	0.43866868472333
0	18622	176	0.488939553426
0	18623	176	0.506030029031
0	18740	177	0.504972514272
0	18741	177	0.4995897374205
0	18742	177	0.300957684953
0	18743	177	0.2280899200305
0	18845	178	0.371532695951
0	18846	178	0.29421835076
0	18848	178	0.4290072683422
0	18849	178	0.49038221928017
0	18850	178	0.49563559377957
0	18851	178	0.49439876372137
0	18852	178	0.44420921353933
0	18968	179	0.40687489349
0	18970	179	0.958266829203
0	18971	179	0.952250422728
0	18972	179	0.94749243990333
0	18973	179	0.891949016741
0	18974	179	0.7894395094464
0	19068	180	0.773212621554
0	19069	180	0.72758166620957
0	19070	180	0.67542062636837
0	19071	180	0.61335666397556
0	19073	180	0.6276040709631
0	19074	180	0.072545004352
0	19142	181	0.3345711517795
0	19143	181	0.24549196607733
0	19145	181	0.353245769214
0	19146	181	0.3341577503642
0	19265	182	0.42113243444883
0	19266	182	0.45074294464214
0	19267	182	0.43240236068625
0	19268	182	0.40311231463344
0	19270	182	0.4556464807826
0	19271	182	0.762897303577
0	19272	182	0.581678247349
0	19385	183	0.673447822213
0	19386	183	0.5341138416545
0	19485	184	0.5120473151462
0	19487	184	0.52155581873667
0	19488	184	0.50715827710414
0	19489	184	0.49518962936262
0	19490	184	0.45784166703222
0	19578	185	0.5007593823715
0	19579	185	0.030891346018
0	19581	185	0.3851710783175
0	19582	185	0.47014652422333
0	19583	185	0.48813269821425
0	19584	185	0.46737095515
0	19585	185	0.4477862020095
0	19660	186	0.50952582286857
0	19661	186	0.52203471835562
0	19662	186	0.50012551251267
0	19663	186	0.4590585136185
0	19796	187	0.872801171622
0	19797	187	0.8206865306495
0	19798	187	0.78528403938467
0	19799	187	0.74393680457675
0	19801	187	0.7721146304386
0	19802	187	0.7737378842725
0	19803	187	0.77299868602314
0	19804	187	0.75771219987125
0	19805	187	0.732468579472
0	19806	187	0.7047412669684
0	19920	188	1.097007199556
0	19921	188	0.82211704765
0	19922	188	0.58454217122367
0	19924	188	0.79719126032275
0	19925	188	0.8725959141132
0	19926	188	0.86567397508167
0	19927	188	0.78319108120871
0	19928	188	0.72095328996575
0	19929	188	0.66417709238356
0	19998	189	0.6215483323771
0	20000	189	0.646866114168
0	20102	190	0.4122334806695
0	20103	190	0.28269227671267
0	20105	190	0.35397045560975
0	20106	190	0.309593059727
0	20107	190	0.26916363052483
0	20306	192	0.33885489554843
0	20307	192	0.371940152449
0	20308	192	0.33826453944233
0	20310	192	0.3934669981186
0	20311	192	0.829035946264
0	20312	192	0.6515063673075
0	20313	192	0.47613203642967
0	20314	192	0.36000201828975
0	20434	193	0.348715693499
0	20436	193	0.38617429411833
0	20437	193	0.40354117784171
0	20438	193	0.40111740777062
0	20439	193	0.389848237171
0	20549	194	0.4027230426195
0	20550	194	0.34521122977
0	20551	194	0.3316822578855
0	20552	194	0.29548742444667
0	20553	194	0.2430572996375
0	20555	194	0.1974597951636
0	20678	195	0.32425017409183
0	20679	195	0.40584016139943
0	20680	195	0.43951519966338
0	20775	196	0.46681729090111
0	20776	196	0.4536068831403
0	20777	196	0.185846767876
0	20779	196	0.5130703108755
0	20864	197	0.463487807308
0	20865	197	0.4265865873965
0	20866	197	0.3876763336628
0	20951	198	0.47138313997217
0	20952	198	0.50729460258857
0	20953	198	0.446756902401
0	20955	198	0.47121309356078
0	21050	199	0.5084218716743
0	21052	199	0.41500155168
0	21153	200	0.3408945880675
0	21155	200	0.43305411772933
0	21156	200	0.41286753385775